<?xml version="1.0" encoding="UTF-8"?>

<!-- generated on 2020年03月17日 星期二 19时12分52秒 by Eclipse SUMO GUI Version v1_1_0+0000-2147d155b1
<configuration xmlns:xsi="http://www.w3.org/2001/XMLSchema-instance" xsi:noNamespaceSchemaLocation="http://sumo.dlr.de/xsd/sumoConfiguration.xsd">

    <input>
        <net-file value="/home/ryc/flow/flow/core/kernel/network/debug/cfg/merge-baseline_20200317-1912511584443571.0936973.net.xml"/>
        <route-files value="/home/ryc/flow/flow/core/kernel/network/debug/cfg/merge-baseline_20200317-1912511584443571.0936973.rou.xml"/>
        <additional-files value="/home/ryc/flow/flow/core/kernel/network/debug/cfg/merge-baseline_20200317-1912511584443571.0936973.add.xml"/>
    </input>

    <output>
        <emission-output value="./data/merge-baseline_20200317-1912511584443571.0936973-emission.xml"/>
    </output>

    <time>
        <begin value="0"/>
        <step-length value="0.2"/>
    </time>

    <processing>
        <collision.check-junctions value="true"/>
        <time-to-teleport value="-1"/>
    </processing>

    <report>
        <no-step-log value="true"/>
    </report>

    <traci_server>
        <remote-port value="54513"/>
        <num-clients value="1"/>
    </traci_server>

    <gui_only>
        <gui-settings-file value="/home/ryc/flow/flow/core/kernel/network/debug/cfg/merge-baseline_20200317-1912511584443571.0936973.gui.cfg"/>
        <tracker-interval value="0.2"/>
    </gui_only>

</configuration>
-->

<emission-export xmlns:xsi="http://www.w3.org/2001/XMLSchema-instance" xsi:noNamespaceSchemaLocation="http://sumo.dlr.de/xsd/emission_file.xsd">
    <timestep time="0.00"/>
    <timestep time="0.20">
        <vehicle id="human_0" eclass="HBEFA3/PC_G_EU4" CO2="2624.72" CO="164.78" HC="0.81" NOx="1.20" PMx="0.07" fuel="1.13" electricity="0.00" noise="55.94" route="routeinflow_highway_0" type="human" waiting="0.00" lane="inflow_highway_0" pos="0.00" speed="0.00" angle="90.00" x="0.00" y="139.82"/>
        <vehicle id="human_1" eclass="HBEFA3/PC_G_EU4" CO2="2624.72" CO="164.78" HC="0.81" NOx="1.20" PMx="0.07" fuel="1.13" electricity="0.00" noise="55.94" route="routeleft_0" type="human" waiting="0.00" lane="left_0" pos="79.25" speed="0.00" angle="90.00" x="177.16" y="139.82"/>
        <vehicle id="human_2" eclass="HBEFA3/PC_G_EU4" CO2="2624.72" CO="164.78" HC="0.81" NOx="1.20" PMx="0.07" fuel="1.13" electricity="0.00" noise="55.94" route="routeleft_0" type="human" waiting="0.00" lane="left_0" pos="265.72" speed="0.00" angle="90.00" x="358.71" y="139.82"/>
        <vehicle id="human_3" eclass="HBEFA3/PC_G_EU4" CO2="2624.72" CO="164.78" HC="0.81" NOx="1.20" PMx="0.07" fuel="1.13" electricity="0.00" noise="55.94" route="routeleft_0" type="human" waiting="0.00" lane="left_0" pos="446.85" speed="0.00" angle="90.00" x="535.05" y="139.82"/>
        <vehicle id="human_4" eclass="HBEFA3/PC_G_EU4" CO2="2624.72" CO="164.78" HC="0.81" NOx="1.20" PMx="0.07" fuel="1.13" electricity="0.00" noise="55.94" route="routecenter_0" type="human" waiting="0.00" lane="center_0" pos="98.06" speed="0.00" angle="90.00" x="698.28" y="139.82"/>
    </timestep>
    <timestep time="0.40">
        <vehicle id="human_0" eclass="HBEFA3/PC_G_EU4" CO2="2639.99" CO="162.13" HC="0.80" NOx="1.21" PMx="0.07" fuel="1.13" electricity="0.00" noise="59.70" route="routeinflow_highway_0" type="human" waiting="0.00" lane="inflow_highway_0" pos="0.03" speed="0.17" angle="90.00" x="0.03" y="139.82"/>
        <vehicle id="human_1" eclass="HBEFA3/PC_G_EU4" CO2="2677.61" CO="161.36" HC="0.80" NOx="1.22" PMx="0.07" fuel="1.15" electricity="0.00" noise="61.68" route="routeleft_0" type="human" waiting="0.00" lane="left_0" pos="79.30" speed="0.26" angle="90.00" x="177.21" y="139.82"/>
        <vehicle id="human_2" eclass="HBEFA3/PC_G_EU4" CO2="2647.74" CO="161.89" HC="0.80" NOx="1.21" PMx="0.07" fuel="1.14" electricity="0.00" noise="60.21" route="routeleft_0" type="human" waiting="0.00" lane="left_0" pos="265.76" speed="0.19" angle="90.00" x="358.74" y="139.82"/>
        <vehicle id="human_3" eclass="HBEFA3/PC_G_EU4" CO2="2655.97" CO="161.70" HC="0.80" NOx="1.21" PMx="0.07" fuel="1.14" electricity="0.00" noise="60.67" route="routeleft_0" type="human" waiting="0.00" lane="left_0" pos="446.89" speed="0.21" angle="90.00" x="535.09" y="139.82"/>
        <vehicle id="human_4" eclass="HBEFA3/PC_G_EU4" CO2="2650.21" CO="161.83" HC="0.80" NOx="1.21" PMx="0.07" fuel="1.14" electricity="0.00" noise="60.36" route="routecenter_0" type="human" waiting="0.00" lane="center_0" pos="98.10" speed="0.20" angle="90.00" x="698.31" y="139.82"/>
    </timestep>
    <timestep time="0.60">
        <vehicle id="human_0" eclass="HBEFA3/PC_G_EU4" CO2="2652.35" CO="159.56" HC="0.79" NOx="1.21" PMx="0.06" fuel="1.14" electricity="0.00" noise="59.62" route="routeinflow_highway_0" type="human" waiting="0.00" lane="inflow_highway_0" pos="0.10" speed="0.33" angle="90.00" x="0.10" y="139.82"/>
        <vehicle id="human_1" eclass="HBEFA3/PC_G_EU4" CO2="2658.93" CO="158.19" HC="0.78" NOx="1.21" PMx="0.06" fuel="1.14" electricity="0.00" noise="59.62" route="routeleft_0" type="human" waiting="0.00" lane="left_0" pos="79.39" speed="0.42" angle="90.00" x="177.29" y="139.82"/>
        <vehicle id="human_2" eclass="HBEFA3/PC_G_EU4" CO2="2686.80" CO="158.96" HC="0.79" NOx="1.22" PMx="0.07" fuel="1.16" electricity="0.00" noise="60.81" route="routeleft_0" type="human" waiting="0.00" lane="left_0" pos="265.84" speed="0.41" angle="90.00" x="358.82" y="139.82"/>
        <vehicle id="human_3" eclass="HBEFA3/PC_G_EU4" CO2="2661.44" CO="158.83" HC="0.79" NOx="1.21" PMx="0.06" fuel="1.14" electricity="0.00" noise="59.84" route="routeleft_0" type="human" waiting="0.00" lane="left_0" pos="446.97" speed="0.38" angle="90.00" x="535.17" y="139.82"/>
        <vehicle id="human_4" eclass="HBEFA3/PC_G_EU4" CO2="2672.61" CO="158.95" HC="0.79" NOx="1.22" PMx="0.07" fuel="1.15" electricity="0.00" noise="60.30" route="routecenter_0" type="human" waiting="0.00" lane="center_0" pos="98.18" speed="0.39" angle="90.00" x="698.38" y="139.82"/>
    </timestep>
    <timestep time="0.80">
        <vehicle id="human_0" eclass="HBEFA3/PC_G_EU4" CO2="2727.51" CO="157.03" HC="0.78" NOx="1.24" PMx="0.07" fuel="1.17" electricity="0.00" noise="61.34" route="routeinflow_highway_0" type="human" waiting="0.00" lane="inflow_highway_0" pos="0.21" speed="0.57" angle="90.00" x="0.21" y="139.82"/>
        <vehicle id="human_1" eclass="HBEFA3/PC_G_EU4" CO2="2704.14" CO="155.75" HC="0.77" NOx="1.22" PMx="0.06" fuel="1.16" electricity="0.00" noise="60.47" route="routeleft_0" type="human" waiting="0.00" lane="left_0" pos="79.51" speed="0.61" angle="90.00" x="177.41" y="139.82"/>
        <vehicle id="human_2" eclass="HBEFA3/PC_G_EU4" CO2="2715.05" CO="155.94" HC="0.77" NOx="1.23" PMx="0.06" fuel="1.17" electricity="0.00" noise="60.76" route="routeleft_0" type="human" waiting="0.00" lane="left_0" pos="265.96" speed="0.61" angle="90.00" x="358.94" y="139.82"/>
        <vehicle id="human_3" eclass="HBEFA3/PC_G_EU4" CO2="2706.16" CO="156.25" HC="0.77" NOx="1.23" PMx="0.06" fuel="1.16" electricity="0.00" noise="60.62" route="routeleft_0" type="human" waiting="0.00" lane="left_0" pos="447.08" speed="0.59" angle="90.00" x="535.28" y="139.82"/>
        <vehicle id="human_4" eclass="HBEFA3/PC_G_EU4" CO2="2731.01" CO="156.22" HC="0.78" NOx="1.24" PMx="0.07" fuel="1.17" electricity="0.00" noise="61.19" route="routecenter_0" type="human" waiting="0.00" lane="center_0" pos="98.30" speed="0.62" angle="90.00" x="698.49" y="139.82"/>
    </timestep>
    <timestep time="1.00">
        <vehicle id="flow_10.0" eclass="HBEFA3/PC_G_EU4" CO2="2093.16" CO="44.77" HC="0.25" NOx="0.75" PMx="0.02" fuel="0.90" electricity="0.00" noise="59.99" route="routeinflow_merge_0" type="human" waiting="0.00" lane="inflow_merge_0" pos="5.10" speed="7.50" angle="45.00" x="463.32" y="2.48"/>
        <vehicle id="human_0" eclass="HBEFA3/PC_G_EU4" CO2="2742.74" CO="153.73" HC="0.76" NOx="1.24" PMx="0.06" fuel="1.18" electricity="0.00" noise="60.88" route="routeinflow_highway_0" type="human" waiting="0.00" lane="inflow_highway_0" pos="0.37" speed="0.78" angle="90.00" x="0.37" y="139.82"/>
        <vehicle id="human_1" eclass="HBEFA3/PC_G_EU4" CO2="2696.66" CO="152.77" HC="0.76" NOx="1.22" PMx="0.06" fuel="1.16" electricity="0.00" noise="59.88" route="routeleft_0" type="human" waiting="0.00" lane="left_0" pos="79.66" speed="0.78" angle="90.00" x="177.56" y="139.82"/>
        <vehicle id="human_2" eclass="HBEFA3/PC_G_EU4" CO2="2717.46" CO="152.85" HC="0.76" NOx="1.23" PMx="0.06" fuel="1.17" electricity="0.00" noise="60.29" route="routeleft_0" type="human" waiting="0.00" lane="left_0" pos="266.12" speed="0.80" angle="90.00" x="359.10" y="139.82"/>
        <vehicle id="human_3" eclass="HBEFA3/PC_G_EU4" CO2="2770.35" CO="153.62" HC="0.76" NOx="1.25" PMx="0.07" fuel="1.19" electricity="0.00" noise="61.34" route="routeleft_0" type="human" waiting="0.00" lane="left_0" pos="447.25" speed="0.82" angle="90.00" x="535.44" y="139.82"/>
        <vehicle id="human_4" eclass="HBEFA3/PC_G_EU4" CO2="2750.04" CO="153.01" HC="0.76" NOx="1.24" PMx="0.06" fuel="1.18" electricity="0.00" noise="60.89" route="routecenter_0" type="human" waiting="0.00" lane="center_0" pos="98.46" speed="0.83" angle="90.00" x="698.64" y="139.82"/>
    </timestep>
    <timestep time="1.20">
        <vehicle id="flow_10.0" eclass="HBEFA3/PC_G_EU4" CO2="3408.18" CO="70.34" HC="0.40" NOx="1.37" PMx="0.05" fuel="1.47" electricity="0.00" noise="62.50" route="routeinflow_merge_0" type="human" waiting="0.00" lane="inflow_merge_0" pos="6.63" speed="7.63" angle="45.00" x="464.40" y="3.56"/>
        <vehicle id="human_0" eclass="HBEFA3/PC_G_EU4" CO2="2709.30" CO="150.27" HC="0.75" NOx="1.22" PMx="0.06" fuel="1.16" electricity="0.00" noise="59.88" route="routeinflow_highway_0" type="human" waiting="0.00" lane="inflow_highway_0" pos="0.56" speed="0.94" angle="90.00" x="0.56" y="139.82"/>
        <vehicle id="human_1" eclass="HBEFA3/PC_G_EU4" CO2="2767.45" CO="150.75" HC="0.75" NOx="1.24" PMx="0.06" fuel="1.19" electricity="0.00" noise="60.82" route="routeleft_0" type="human" waiting="0.00" lane="left_0" pos="79.86" speed="0.98" angle="90.00" x="177.75" y="139.82"/>
        <vehicle id="human_2" eclass="HBEFA3/PC_G_EU4" CO2="2711.71" CO="149.96" HC="0.75" NOx="1.22" PMx="0.06" fuel="1.17" electricity="0.00" noise="59.90" route="routeleft_0" type="human" waiting="0.00" lane="left_0" pos="266.32" speed="0.96" angle="90.00" x="359.28" y="139.82"/>
        <vehicle id="human_3" eclass="HBEFA3/PC_G_EU4" CO2="2701.37" CO="149.59" HC="0.74" NOx="1.21" PMx="0.06" fuel="1.16" electricity="0.00" noise="59.70" route="routeleft_0" type="human" waiting="0.00" lane="left_0" pos="447.44" speed="0.97" angle="90.00" x="535.63" y="139.82"/>
        <vehicle id="human_4" eclass="HBEFA3/PC_G_EU4" CO2="2758.27" CO="149.91" HC="0.75" NOx="1.24" PMx="0.06" fuel="1.19" electricity="0.00" noise="60.59" route="routecenter_0" type="human" waiting="0.00" lane="center_0" pos="98.67" speed="1.02" angle="90.00" x="698.82" y="139.82"/>
    </timestep>
    <timestep time="1.40">
        <vehicle id="flow_10.0" eclass="HBEFA3/PC_G_EU4" CO2="3910.04" CO="78.67" HC="0.45" NOx="1.60" PMx="0.07" fuel="1.68" electricity="0.00" noise="63.51" route="routeinflow_merge_0" type="human" waiting="0.00" lane="inflow_merge_0" pos="8.19" speed="7.81" angle="45.00" x="465.50" y="4.66"/>
        <vehicle id="human_0" eclass="HBEFA3/PC_G_EU4" CO2="2832.97" CO="148.97" HC="0.74" NOx="1.27" PMx="0.07" fuel="1.22" electricity="0.00" noise="61.43" route="routeinflow_highway_0" type="human" waiting="0.00" lane="inflow_highway_0" pos="0.79" speed="1.17" angle="90.00" x="0.79" y="139.82"/>
        <vehicle id="human_1" eclass="HBEFA3/PC_G_EU4" CO2="2784.84" CO="147.81" HC="0.74" NOx="1.25" PMx="0.06" fuel="1.20" electricity="0.00" noise="60.72" route="routeleft_0" type="human" waiting="0.00" lane="left_0" pos="80.10" speed="1.18" angle="90.00" x="177.98" y="139.82"/>
        <vehicle id="human_2" eclass="HBEFA3/PC_G_EU4" CO2="2919.65" CO="149.63" HC="0.75" NOx="1.31" PMx="0.07" fuel="1.26" electricity="0.00" noise="62.46" route="routeleft_0" type="human" waiting="0.00" lane="left_0" pos="266.56" speed="1.24" angle="90.00" x="359.53" y="139.82"/>
        <vehicle id="human_3" eclass="HBEFA3/PC_G_EU4" CO2="2756.77" CO="147.70" HC="0.74" NOx="1.23" PMx="0.06" fuel="1.19" electricity="0.00" noise="60.35" route="routeleft_0" type="human" waiting="0.00" lane="left_0" pos="447.67" speed="1.15" angle="90.00" x="535.85" y="139.82"/>
        <vehicle id="human_4" eclass="HBEFA3/PC_G_EU4" CO2="2731.08" CO="146.64" HC="0.73" NOx="1.22" PMx="0.06" fuel="1.17" electricity="0.00" noise="59.94" route="routecenter_0" type="human" waiting="0.00" lane="center_0" pos="98.90" speed="1.18" angle="90.00" x="699.03" y="139.82"/>
    </timestep>
    <timestep time="1.60">
        <vehicle id="flow_10.0" eclass="HBEFA3/PC_G_EU4" CO2="3709.78" CO="72.81" HC="0.42" NOx="1.50" PMx="0.06" fuel="1.59" electricity="0.00" noise="63.15" route="routeinflow_merge_0" type="human" waiting="0.00" lane="inflow_merge_0" pos="9.78" speed="7.97" angle="45.00" x="466.63" y="5.79"/>
        <vehicle id="human_0" eclass="HBEFA3/PC_G_EU4" CO2="2674.31" CO="143.69" HC="0.72" NOx="1.19" PMx="0.06" fuel="1.15" electricity="0.00" noise="59.10" route="routeinflow_highway_0" type="human" waiting="0.00" lane="inflow_highway_0" pos="1.05" speed="1.29" angle="90.00" x="1.05" y="139.82"/>
        <vehicle id="human_1" eclass="HBEFA3/PC_G_EU4" CO2="2798.80" CO="144.96" HC="0.73" NOx="1.25" PMx="0.06" fuel="1.20" electricity="0.00" noise="60.62" route="routeleft_0" type="human" waiting="0.00" lane="left_0" pos="80.37" speed="1.37" angle="90.00" x="178.25" y="139.82"/>
        <vehicle id="human_2" eclass="HBEFA3/PC_G_EU4" CO2="2794.78" CO="144.03" HC="0.72" NOx="1.25" PMx="0.06" fuel="1.20" electricity="0.00" noise="60.51" route="routeleft_0" type="human" waiting="0.00" lane="left_0" pos="266.85" speed="1.42" angle="90.00" x="359.80" y="139.82"/>
        <vehicle id="human_3" eclass="HBEFA3/PC_G_EU4" CO2="2776.94" CO="145.13" HC="0.73" NOx="1.24" PMx="0.06" fuel="1.19" electricity="0.00" noise="60.39" route="routeleft_0" type="human" waiting="0.00" lane="left_0" pos="447.94" speed="1.33" angle="90.00" x="536.11" y="139.82"/>
        <vehicle id="human_4" eclass="HBEFA3/PC_G_EU4" CO2="2767.46" CO="144.53" HC="0.72" NOx="1.23" PMx="0.06" fuel="1.19" electricity="0.00" noise="60.25" route="routecenter_0" type="human" waiting="0.00" lane="center_0" pos="99.18" speed="1.36" angle="90.00" x="699.27" y="139.82"/>
    </timestep>
    <timestep time="1.80">
        <vehicle id="flow_10.0" eclass="HBEFA3/PC_G_EU4" CO2="3773.00" CO="72.37" HC="0.42" NOx="1.53" PMx="0.06" fuel="1.62" electricity="0.00" noise="63.30" route="routeinflow_merge_0" type="human" waiting="0.00" lane="inflow_merge_0" pos="11.41" speed="8.13" angle="45.00" x="467.78" y="6.94"/>
        <vehicle id="human_0" eclass="HBEFA3/PC_G_EU4" CO2="2891.10" CO="144.43" HC="0.72" NOx="1.29" PMx="0.06" fuel="1.24" electricity="0.00" noise="61.48" route="routeinflow_highway_0" type="human" waiting="0.00" lane="inflow_highway_0" pos="1.35" speed="1.52" angle="90.00" x="1.35" y="139.82"/>
        <vehicle id="human_1" eclass="HBEFA3/PC_G_EU4" CO2="2845.45" CO="142.66" HC="0.72" NOx="1.27" PMx="0.06" fuel="1.22" electricity="0.00" noise="60.90" route="routeleft_0" type="human" waiting="0.00" lane="left_0" pos="80.68" speed="1.57" angle="90.00" x="178.55" y="139.82"/>
        <vehicle id="human_2" eclass="HBEFA3/PC_G_EU4" CO2="2877.07" CO="142.30" HC="0.71" NOx="1.28" PMx="0.06" fuel="1.24" electricity="0.00" noise="61.16" route="routeleft_0" type="human" waiting="0.00" lane="left_0" pos="267.17" speed="1.63" angle="90.00" x="360.12" y="139.82"/>
        <vehicle id="human_3" eclass="HBEFA3/PC_G_EU4" CO2="2975.37" CO="144.95" HC="0.73" NOx="1.33" PMx="0.07" fuel="1.28" electricity="0.00" noise="62.25" route="routeleft_0" type="human" waiting="0.00" lane="left_0" pos="448.26" speed="1.59" angle="90.00" x="536.42" y="139.82"/>
        <vehicle id="human_4" eclass="HBEFA3/PC_G_EU4" CO2="2866.30" CO="143.13" HC="0.72" NOx="1.28" PMx="0.06" fuel="1.23" electricity="0.00" noise="61.13" route="routecenter_0" type="human" waiting="0.00" lane="center_0" pos="99.49" speed="1.56" angle="90.00" x="699.55" y="139.82"/>
    </timestep>
    <timestep time="2.00">
        <vehicle id="flow_10.0" eclass="HBEFA3/PC_G_EU4" CO2="4550.99" CO="85.95" HC="0.50" NOx="1.89" PMx="0.08" fuel="1.96" electricity="0.00" noise="64.74" route="routeinflow_merge_0" type="human" waiting="0.00" lane="inflow_merge_0" pos="13.08" speed="8.35" angle="45.00" x="468.96" y="8.12"/>
        <vehicle id="human_0" eclass="HBEFA3/PC_G_EU4" CO2="2998.62" CO="142.55" HC="0.72" NOx="1.33" PMx="0.07" fuel="1.29" electricity="0.00" noise="62.15" route="routeinflow_highway_0" type="human" waiting="0.00" lane="inflow_highway_0" pos="1.70" speed="1.77" angle="90.00" x="1.70" y="139.82"/>
        <vehicle id="human_1" eclass="HBEFA3/PC_G_EU4" CO2="3011.53" CO="141.98" HC="0.72" NOx="1.34" PMx="0.07" fuel="1.29" electricity="0.00" noise="62.18" route="routeleft_0" type="human" waiting="0.00" lane="left_0" pos="81.05" speed="1.82" angle="90.00" x="178.91" y="139.82"/>
        <vehicle id="human_2" eclass="HBEFA3/PC_G_EU4" CO2="2854.60" CO="138.82" HC="0.70" NOx="1.26" PMx="0.06" fuel="1.23" electricity="0.00" noise="60.73" route="routeleft_0" type="human" waiting="0.00" lane="left_0" pos="267.53" speed="1.81" angle="90.00" x="360.47" y="139.82"/>
        <vehicle id="human_3" eclass="HBEFA3/PC_G_EU4" CO2="2826.46" CO="139.01" HC="0.70" NOx="1.25" PMx="0.06" fuel="1.22" electricity="0.00" noise="60.51" route="routeleft_0" type="human" waiting="0.00" lane="left_0" pos="448.61" speed="1.77" angle="90.00" x="536.77" y="139.82"/>
        <vehicle id="human_4" eclass="HBEFA3/PC_G_EU4" CO2="2870.21" CO="140.02" HC="0.70" NOx="1.27" PMx="0.06" fuel="1.23" electricity="0.00" noise="60.93" route="routecenter_0" type="human" waiting="0.00" lane="center_0" pos="99.84" speed="1.76" angle="90.00" x="699.86" y="139.82"/>
    </timestep>
    <timestep time="2.20">
        <vehicle id="flow_10.0" eclass="HBEFA3/PC_G_EU4" CO2="4369.29" CO="80.04" HC="0.47" NOx="1.80" PMx="0.08" fuel="1.88" electricity="0.00" noise="64.42" route="routeinflow_merge_0" type="human" waiting="0.00" lane="inflow_merge_0" pos="14.79" speed="8.56" angle="45.00" x="470.17" y="9.33"/>
        <vehicle id="human_0" eclass="HBEFA3/PC_G_EU4" CO2="2898.38" CO="137.35" HC="0.69" NOx="1.28" PMx="0.06" fuel="1.25" electricity="0.00" noise="60.99" route="routeinflow_highway_0" type="human" waiting="0.00" lane="inflow_highway_0" pos="2.10" speed="1.96" angle="90.00" x="2.10" y="139.82"/>
        <vehicle id="human_1" eclass="HBEFA3/PC_G_EU4" CO2="3014.87" CO="138.31" HC="0.70" NOx="1.33" PMx="0.07" fuel="1.30" electricity="0.00" noise="61.87" route="routeleft_0" type="human" waiting="0.00" lane="left_0" pos="81.46" speed="2.05" angle="90.00" x="179.31" y="139.82"/>
        <vehicle id="human_2" eclass="HBEFA3/PC_G_EU4" CO2="2806.95" CO="135.29" HC="0.68" NOx="1.24" PMx="0.06" fuel="1.21" electricity="0.00" noise="60.20" route="routeleft_0" type="human" waiting="0.00" lane="left_0" pos="267.93" speed="1.97" angle="90.00" x="360.86" y="139.82"/>
        <vehicle id="human_3" eclass="HBEFA3/PC_G_EU4" CO2="2885.10" CO="137.16" HC="0.69" NOx="1.27" PMx="0.06" fuel="1.24" electricity="0.00" noise="60.88" route="routeleft_0" type="human" waiting="0.00" lane="left_0" pos="449.00" speed="1.96" angle="90.00" x="537.15" y="139.82"/>
    </timestep>
    <timestep time="2.40">
        <vehicle id="flow_10.0" eclass="HBEFA3/PC_G_EU4" CO2="4617.84" CO="82.85" HC="0.49" NOx="1.91" PMx="0.08" fuel="1.99" electricity="0.00" noise="64.87" route="routeinflow_merge_0" type="human" waiting="0.00" lane="inflow_merge_0" pos="16.54" speed="8.78" angle="45.00" x="471.41" y="10.57"/>
        <vehicle id="human_0" eclass="HBEFA3/PC_G_EU4" CO2="3108.50" CO="137.63" HC="0.70" NOx="1.37" PMx="0.07" fuel="1.34" electricity="0.00" noise="62.39" route="routeinflow_highway_0" type="human" waiting="0.00" lane="inflow_highway_0" pos="2.54" speed="2.22" angle="90.00" x="2.54" y="139.82"/>
        <vehicle id="human_1" eclass="HBEFA3/PC_G_EU4" CO2="2936.44" CO="133.63" HC="0.68" NOx="1.29" PMx="0.06" fuel="1.26" electricity="0.00" noise="61.06" route="routeleft_0" type="human" waiting="0.00" lane="left_0" pos="81.91" speed="2.24" angle="90.00" x="179.74" y="139.82"/>
        <vehicle id="human_2" eclass="HBEFA3/PC_G_EU4" CO2="2933.93" CO="134.78" HC="0.68" NOx="1.29" PMx="0.06" fuel="1.26" electricity="0.00" noise="61.10" route="routeleft_0" type="human" waiting="0.00" lane="left_0" pos="268.36" speed="2.17" angle="90.00" x="361.28" y="139.82"/>
        <vehicle id="human_3" eclass="HBEFA3/PC_G_EU4" CO2="2827.16" CO="133.40" HC="0.67" NOx="1.24" PMx="0.06" fuel="1.22" electricity="0.00" noise="60.30" route="routeleft_0" type="human" waiting="0.00" lane="left_0" pos="449.42" speed="2.12" angle="90.00" x="537.56" y="139.82"/>
    </timestep>
    <timestep time="2.60">
        <vehicle id="flow_10.0" eclass="HBEFA3/PC_G_EU4" CO2="4106.43" CO="70.55" HC="0.42" NOx="1.66" PMx="0.07" fuel="1.77" electricity="0.00" noise="64.03" route="routeinflow_merge_0" type="human" waiting="0.00" lane="inflow_merge_0" pos="18.33" speed="8.95" angle="45.00" x="472.67" y="11.83"/>
        <vehicle id="human_0" eclass="HBEFA3/PC_G_EU4" CO2="3120.25" CO="134.10" HC="0.68" NOx="1.37" PMx="0.07" fuel="1.34" electricity="0.00" noise="62.18" route="routeinflow_highway_0" type="human" waiting="0.00" lane="inflow_highway_0" pos="3.03" speed="2.46" angle="90.00" x="3.03" y="139.82"/>
        <vehicle id="human_1" eclass="HBEFA3/PC_G_EU4" CO2="2808.19" CO="128.72" HC="0.65" NOx="1.23" PMx="0.06" fuel="1.21" electricity="0.00" noise="60.06" route="routeleft_0" type="human" waiting="0.00" lane="left_0" pos="82.38" speed="2.39" angle="90.00" x="180.21" y="139.82"/>
        <vehicle id="human_2" eclass="HBEFA3/PC_G_EU4" CO2="2674.25" CO="127.81" HC="0.64" NOx="1.17" PMx="0.06" fuel="1.15" electricity="0.00" noise="59.11" route="routeleft_0" type="human" waiting="0.00" lane="left_0" pos="268.82" speed="2.27" angle="90.00" x="361.72" y="139.82"/>
        <vehicle id="human_3" eclass="HBEFA3/PC_G_EU4" CO2="3056.62" CO="134.54" HC="0.68" NOx="1.34" PMx="0.06" fuel="1.31" electricity="0.00" noise="61.85" route="routeleft_0" type="human" waiting="0.00" lane="left_0" pos="449.89" speed="2.34" angle="90.00" x="538.01" y="139.82"/>
    </timestep>
    <timestep time="2.80">
        <vehicle id="flow_10.0" eclass="HBEFA3/PC_G_EU4" CO2="3826.12" CO="63.30" HC="0.38" NOx="1.53" PMx="0.06" fuel="1.64" electricity="0.00" noise="63.62" route="routeinflow_merge_0" type="human" waiting="0.00" lane="inflow_merge_0" pos="20.15" speed="9.10" angle="45.00" x="473.96" y="13.12"/>
        <vehicle id="human_0" eclass="HBEFA3/PC_G_EU4" CO2="3049.89" CO="129.45" HC="0.66" NOx="1.33" PMx="0.06" fuel="1.31" electricity="0.00" noise="61.53" route="routeinflow_highway_0" type="human" waiting="0.00" lane="inflow_highway_0" pos="3.56" speed="2.66" angle="90.00" x="3.56" y="139.82"/>
        <vehicle id="human_1" eclass="HBEFA3/PC_G_EU4" CO2="2825.88" CO="126.82" HC="0.64" NOx="1.23" PMx="0.06" fuel="1.21" electricity="0.00" noise="60.15" route="routeleft_0" type="human" waiting="0.00" lane="left_0" pos="82.89" speed="2.53" angle="90.00" x="180.70" y="139.82"/>
        <vehicle id="human_2" eclass="HBEFA3/PC_G_EU4" CO2="3214.45" CO="134.81" HC="0.69" NOx="1.41" PMx="0.07" fuel="1.38" electricity="0.00" noise="62.72" route="routeleft_0" type="human" waiting="0.00" lane="left_0" pos="269.32" speed="2.53" angle="90.00" x="362.21" y="139.82"/>
        <vehicle id="human_3" eclass="HBEFA3/PC_G_EU4" CO2="3196.18" CO="133.47" HC="0.68" NOx="1.40" PMx="0.07" fuel="1.37" electricity="0.00" noise="62.52" route="routeleft_0" type="human" waiting="0.00" lane="left_0" pos="450.41" speed="2.60" angle="90.00" x="538.52" y="139.82"/>
    </timestep>
    <timestep time="3.00">
        <vehicle id="flow_10.0" eclass="HBEFA3/PC_G_EU4" CO2="5629.35" CO="97.55" HC="0.58" NOx="2.37" PMx="0.11" fuel="2.42" electricity="0.00" noise="66.53" route="routeinflow_merge_0" type="human" waiting="0.00" lane="inflow_merge_0" pos="22.03" speed="9.39" angle="45.00" x="475.29" y="14.45"/>
        <vehicle id="human_0" eclass="HBEFA3/PC_G_EU4" CO2="3140.53" CO="127.94" HC="0.66" NOx="1.37" PMx="0.06" fuel="1.35" electricity="0.00" noise="61.92" route="routeinflow_highway_0" type="human" waiting="0.00" lane="inflow_highway_0" pos="4.14" speed="2.88" angle="90.00" x="4.14" y="139.82"/>
        <vehicle id="human_1" eclass="HBEFA3/PC_G_EU4" CO2="2822.30" CO="124.57" HC="0.63" NOx="1.22" PMx="0.06" fuel="1.21" electricity="0.00" noise="60.10" route="routeleft_0" type="human" waiting="0.00" lane="left_0" pos="83.42" speed="2.67" angle="90.00" x="181.22" y="139.82"/>
        <vehicle id="human_2" eclass="HBEFA3/PC_G_EU4" CO2="2753.57" CO="123.45" HC="0.63" NOx="1.19" PMx="0.06" fuel="1.18" electricity="0.00" noise="59.67" route="routeleft_0" type="human" waiting="0.00" lane="left_0" pos="269.85" speed="2.65" angle="90.00" x="362.73" y="139.82"/>
        <vehicle id="human_3" eclass="HBEFA3/PC_G_EU4" CO2="2897.24" CO="124.86" HC="0.64" NOx="1.26" PMx="0.06" fuel="1.25" electricity="0.00" noise="60.54" route="routeleft_0" type="human" waiting="0.00" lane="left_0" pos="450.96" speed="2.76" angle="90.00" x="539.06" y="139.82"/>
    </timestep>
    <timestep time="3.20">
        <vehicle id="flow_10.0" eclass="HBEFA3/PC_G_EU4" CO2="4770.34" CO="77.79" HC="0.47" NOx="1.96" PMx="0.08" fuel="2.05" electricity="0.00" noise="65.17" route="routeinflow_merge_0" type="human" waiting="0.00" lane="inflow_merge_0" pos="23.95" speed="9.60" angle="45.00" x="476.65" y="15.81"/>
        <vehicle id="human_0" eclass="HBEFA3/PC_G_EU4" CO2="3121.24" CO="124.44" HC="0.64" NOx="1.35" PMx="0.06" fuel="1.34" electricity="0.00" noise="61.68" route="routeinflow_highway_0" type="human" waiting="0.00" lane="inflow_highway_0" pos="4.76" speed="3.09" angle="90.00" x="4.76" y="139.82"/>
        <vehicle id="human_1" eclass="HBEFA3/PC_G_EU4" CO2="2916.29" CO="124.03" HC="0.63" NOx="1.26" PMx="0.06" fuel="1.25" electricity="0.00" noise="60.63" route="routeleft_0" type="human" waiting="0.00" lane="left_0" pos="83.99" speed="2.83" angle="90.00" x="181.77" y="139.82"/>
        <vehicle id="human_2" eclass="HBEFA3/PC_G_EU4" CO2="2960.08" CO="125.03" HC="0.64" NOx="1.28" PMx="0.06" fuel="1.27" electricity="0.00" noise="60.89" route="routeleft_0" type="human" waiting="0.00" lane="left_0" pos="270.42" speed="2.83" angle="90.00" x="363.28" y="139.82"/>
        <vehicle id="human_3" eclass="HBEFA3/PC_G_EU4" CO2="3358.78" CO="130.28" HC="0.67" NOx="1.47" PMx="0.07" fuel="1.44" electricity="0.00" noise="63.03" route="routeleft_0" type="human" waiting="0.00" lane="left_0" pos="451.57" speed="3.02" angle="90.00" x="539.65" y="139.82"/>
    </timestep>
    <timestep time="3.40">
        <vehicle id="flow_10.0" eclass="HBEFA3/PC_G_EU4" CO2="4629.68" CO="73.00" HC="0.44" NOx="1.89" PMx="0.08" fuel="1.99" electricity="0.00" noise="64.99" route="routeinflow_merge_0" type="human" waiting="0.00" lane="inflow_merge_0" pos="25.91" speed="9.80" angle="45.00" x="478.03" y="17.19"/>
        <vehicle id="human_0" eclass="HBEFA3/PC_G_EU4" CO2="3117.42" CO="121.44" HC="0.62" NOx="1.35" PMx="0.06" fuel="1.34" electricity="0.00" noise="61.56" route="routeinflow_highway_0" type="human" waiting="0.00" lane="inflow_highway_0" pos="5.41" speed="3.28" angle="90.00" x="5.41" y="139.82"/>
        <vehicle id="human_1" eclass="HBEFA3/PC_G_EU4" CO2="2952.94" CO="122.26" HC="0.62" NOx="1.28" PMx="0.06" fuel="1.27" electricity="0.00" noise="60.79" route="routeleft_0" type="human" waiting="0.00" lane="left_0" pos="84.59" speed="3.00" angle="90.00" x="182.36" y="139.82"/>
        <vehicle id="human_2" eclass="HBEFA3/PC_G_EU4" CO2="3024.74" CO="123.57" HC="0.63" NOx="1.31" PMx="0.06" fuel="1.30" electricity="0.00" noise="61.19" route="routeleft_0" type="human" waiting="0.00" lane="left_0" pos="271.02" speed="3.01" angle="90.00" x="363.87" y="139.82"/>
        <vehicle id="human_3" eclass="HBEFA3/PC_G_EU4" CO2="2980.51" CO="119.99" HC="0.62" NOx="1.28" PMx="0.06" fuel="1.28" electricity="0.00" noise="60.89" route="routeleft_0" type="human" waiting="0.00" lane="left_0" pos="452.20" speed="3.19" angle="90.00" x="540.27" y="139.82"/>
    </timestep>
    <timestep time="3.60">
        <vehicle id="flow_10.0" eclass="HBEFA3/PC_G_EU4" CO2="5101.76" CO="80.57" HC="0.49" NOx="2.11" PMx="0.09" fuel="2.19" electricity="0.00" noise="65.71" route="routeinflow_merge_0" type="human" waiting="0.00" lane="inflow_merge_0" pos="27.91" speed="10.02" angle="45.00" x="479.45" y="18.61"/>
        <vehicle id="human_0" eclass="HBEFA3/PC_G_EU4" CO2="2911.87" CO="115.07" HC="0.59" NOx="1.25" PMx="0.06" fuel="1.25" electricity="0.00" noise="60.51" route="routeinflow_highway_0" type="human" waiting="0.00" lane="inflow_highway_0" pos="6.10" speed="3.42" angle="90.00" x="6.10" y="139.82"/>
        <vehicle id="human_1" eclass="HBEFA3/PC_G_EU4" CO2="3072.66" CO="121.89" HC="0.63" NOx="1.33" PMx="0.06" fuel="1.32" electricity="0.00" noise="61.37" route="routeleft_0" type="human" waiting="0.00" lane="left_0" pos="85.23" speed="3.19" angle="90.00" x="182.98" y="139.82"/>
        <vehicle id="human_2" eclass="HBEFA3/PC_G_EU4" CO2="3374.63" CO="126.92" HC="0.66" NOx="1.47" PMx="0.07" fuel="1.45" electricity="0.00" noise="62.88" route="routeleft_0" type="human" waiting="0.00" lane="left_0" pos="271.68" speed="3.27" angle="90.00" x="364.50" y="139.82"/>